ITEM: TIMESTEP
0
ITEM: NUMBER OF ATOMS
216
ITEM: BOX BOUNDS pp pp pp
0 10.000000
0 10.000000
0 10.000000
ITEM: ATOMS id x y z vx vy vz 
0 0.842888 0.833122 0.840187 9.554513 -0.211405 6.853405
1 0.834101 0.830940 2.497255 0.767530 -2.393098 -2.745476
2 0.842859 0.829718 4.170021 9.526075 -3.615100 3.353795
3 0.838955 0.844630 5.831600 5.622236 11.296494 -1.732911
4 0.832873 0.825526 7.504210 -0.460095 -7.807297 4.209658
5 0.827285 0.843047 9.170254 -6.048213 9.713927 3.588120
6 0.840240 2.503352 0.832909 6.906797 3.352431 -0.424384
7 0.847966 2.503163 2.503192 14.632617 3.162892 3.192314
8 0.840250 2.498549 4.156136 6.917111 -1.450637 -10.530566
9 0.833894 2.495913 5.835127 0.561033 -4.087247 1.794082
10 0.835791 2.503826 7.496222 2.457383 3.825785 -3.777754
11 0.823700 2.498837 9.174140 -9.633133 -1.162575 7.473664
12 0.836564 4.161103 0.833433 3.230567 -5.563126 0.099896
13 0.830878 4.177297 2.492829 -2.455555 10.630324 -7.170723
14 0.835156 4.166998 4.162918 1.822536 0.331148 -3.748955
15 0.838278 4.158528 5.845776 4.944570 -8.138689 12.442622
16 0.827975 4.175782 7.500844 -5.358181 9.114992 0.843422
17 0.828589 4.168920 9.157520 -4.744588 2.253481 -9.145317
18 0.849592 5.836370 0.843177 16.258244 3.036468 9.843484
19 0.836623 5.838161 2.508026 3.289543 4.828021 8.026299
20 0.834443 5.828007 4.151981 1.109463 -5.325665 -14.685315
21 0.834750 5.827233 5.840806 1.416506 -6.100114 7.473420
22 0.836124 5.841144 7.493493 2.790317 7.810745 -6.507099
23 0.833329 5.821358 9.160206 -0.004531 -11.975118 -6.459780
24 0.823221 7.497798 0.832961 -10.112073 -2.202282 -0.372044
25 0.837050 7.502197 2.498605 3.716709 2.196500 -1.394936
26 0.832284 7.493106 4.167404 -1.049006 -6.893712 0.737073
27 0.844266 7.492701 5.837571 10.932481 -7.298931 4.237826
28 0.848284 7.493279 7.504543 14.950644 -6.721495 4.542782
29 0.836860 7.510241 9.163421 3.526919 10.240615 -3.245148
30 0.830917 9.170823 0.840839 -2.416184 4.156779 7.505269
31 0.828692 9.167858 2.504464 -4.641783 1.191881 4.464280
32 0.831913 9.172637 4.179884 -1.419859 5.970509 13.217406
33 0.835390 9.151332 5.833075 2.056384 -15.333890 -0.258189
34 0.827493 9.164946 7.494870 -5.840383 -1.720520 -5.130215
35 0.834542 9.181489 9.172019 1.209040 14.822721 5.352640
36 2.498540 0.832372 0.832598 -1.459928 -0.961453 -0.735308
37 2.497649 0.845954 2.498983 -2.351021 12.621067 -1.016849
38 2.497003 0.833634 4.162642 -2.997214 0.300207 -4.024760
39 2.499791 0.824248 5.818994 -0.209283 -9.084795 -14.338873
40 2.493801 0.835318 7.497158 -6.198648 1.984526 -2.842223
41 2.506366 0.835507 9.171589 6.366200 2.173723 4.922654
42 2.497106 2.504107 0.819760 -2.894035 4.106428 -13.572814
43 2.508203 2.502911 2.510123 8.202436 2.910648 10.122930
44 2.500256 2.503650 4.154377 0.256218 3.649954 -12.289028
45 2.500435 2.506839 5.835264 0.435410 6.839113 1.930636
46 2.498294 2.491483 7.494251 -1.705549 -8.517351 -5.748631
47 2.502421 2.504653 9.173647 2.421282 4.652585 6.980593
48 2.516864 4.168216 0.831103 16.863792 1.549702 -2.229870
49 2.508895 4.170786 2.505408 8.894789 4.119186 5.407562
50 2.488173 4.168556 4.158726 -11.827498 1.888956 -7.940465
51 2.509220 4.161971 5.831426 9.220073 -4.695981 -1.906965
52 2.501406 4.164737 7.497618 1.406296 -1.929910 -2.381624
53 2.499960 4.170305 9.159719 -0.039871 3.638486 -6.947206
54 2.486576 5.832018 0.839456 -13.423828 -1.314706 6.122796
55 2.500763 5.832016 2.495045 0.762983 -1.317464 -4.954522
56 2.508216 5.832094 4.170550 8.215780 -1.239174 3.883837
57 2.501253 5.829066 5.842086 1.253176 -4.267418 8.753343
58 2.504555 5.819142 7.507075 4.555480 -14.190824 7.074835
59 2.512390 5.817898 9.166261 12.389861 -15.434856 -0.404975
60 2.495316 7.493097 0.832858 -4.683743 -6.903234 -0.475057
61 2.498244 7.507860 2.501538 -1.756242 7.859667 1.537648
62 2.504159 7.495184 4.177877 4.158693 -4.815712 11.210580
63 2.502161 7.490189 5.838205 2.160950 -9.811475 4.872347
64 2.504423 7.497818 7.488777 4.423171 -2.181436 -11.222725
65 2.496558 7.495615 9.178904 -3.441527 -4.385552 12.237284
66 2.507000 9.165231 0.820865 6.999914 -1.435188 -12.468697
67 2.497379 9.160807 2.493122 -2.621354 -5.859792 -6.877888
68 2.511722 9.162349 4.152172 11.722401 -4.317062 -14.494387
69 2.503801 9.168406 5.828392 3.801509 1.740189 -4.941211
70 2.500292 9.174388 7.510632 0.292127 7.721827 10.631330
71 2.495666 9.163462 9.171231 -4.334430 -3.204726 4.564959
72 4.173307 0.837287 0.831816 6.640294 3.953379 -1.517155
73 4.165303 0.823382 2.499606 -1.363390 -9.951671 -0.394332
74 4.148094 0.832318 4.176806 -18.572184 -1.014900 10.139387
75 4.173584 0.835413 5.839670 6.917919 2.079330 6.336676
76 4.169384 0.830912 7.499231 2.718184 -2.421315 -0.768512
77 4.170826 0.830268 9.159550 4.159940 -3.065171 -7.116533
78 4.172108 2.503842 0.824915 5.441044 3.841666 -8.417951
79 4.171869 2.500263 2.499900 5.202900 0.263301 -0.100194
80 4.162212 2.501253 4.162878 -4.454413 1.252691 -3.788525
81 4.167490 2.507314 5.835667 0.822965 7.314029 2.334294
82 4.164326 2.494677 7.502788 -2.340165 -5.323463 2.788079
83 4.158416 2.501882 9.171364 -8.250347 1.881864 4.698005
84 4.160354 4.173981 0.842198 -6.312302 7.314332 8.864749
85 4.161041 4.170060 2.507591 -5.625340 3.393141 7.590806
86 4.161547 4.173724 4.169433 -5.119320 7.057605 2.766535
87 4.160168 4.170106 5.824672 -6.498578 3.439418 -8.660588
88 4.163003 4.174419 7.498053 -3.662826 7.752278 -1.947116
89 4.160707 4.167778 9.169543 -5.959404 1.111014 2.877121
90 4.170892 5.827667 0.833314 4.225387 -5.666210 -0.019557
91 4.159586 5.838466 2.499503 -7.079915 5.132399 -0.496575
92 4.161174 5.829600 4.166920 -5.491929 -3.732540 0.253288
93 4.163167 5.827745 5.841956 -3.499727 -5.587560 8.623142
94 4.165576 5.821160 7.485851 -1.091071 -12.172699 -14.149116
95 4.174453 5.835474 9.154753 7.786487 2.141255 -11.913299
96 4.160616 7.498328 0.839683 -6.050572 -1.672269 6.349931
97 4.157274 7.494248 2.512325 -9.392046 -5.751466 12.324466
98 4.157779 7.497118 4.166584 -8.887477 -2.882734 -0.083192
99 4.164960 7.504944 5.835827 -1.706561 4.943793 2.493897
100 4.164298 7.493598 7.494458 -2.368231 -6.401766 -5.541592
101 4.157987 7.501867 9.157613 -8.679548 1.866636 -9.053037
102 4.162662 9.171334 0.831888 -4.004902 4.667814 -1.445492
103 4.172762 9.173309 2.504725 6.095515 6.643115 4.724508
104 4.172879 9.177398 4.163339 6.212770 10.732088 -3.327582
105 4.166821 9.160238 5.830125 0.153943 -6.427929 -3.208009
106 4.163891 9.170308 7.498610 -2.774909 3.642350 -1.389617
107 4.157185 9.169001 9.163077 -9.481508 2.334610 -3.589132
108 5.839803 0.829036 0.835978 6.469499 -4.296893 2.644856
109 5.841029 0.833438 2.503034 7.696256 0.104241 3.034345
110 5.826832 0.836517 4.172482 -6.500496 3.183615 5.815613
111 5.844009 0.827553 5.828929 10.675806 -5.780314 -4.403553
112 5.833699 0.827009 7.498291 0.366316 -6.324369 -1.709476
113 5.822645 0.839933 9.163574 -10.687867 6.599190 -3.091831
114 5.835421 2.505667 0.837586 2.087428 5.666943 4.253130
115 5.826018 2.491716 2.504922 -7.314648 -8.284369 4.921932
116 5.826151 2.500045 4.160747 -7.181842 0.044394 -5.919833
117 5.844493 2.494060 5.825646 11.160288 -5.940493 -7.686738
118 5.831251 2.504349 7.495823 -2.081604 4.348884 -4.177179
119 5.832121 2.500361 9.173489 -1.211988 0.361204 6.823009
120 5.827247 4.163509 0.834838 -6.085864 -3.157207 1.504463
121 5.835244 4.159430 2.503515 1.910918 -7.236360 3.515043
122 5.827985 4.160457 4.171169 -5.347651 -6.210095 4.502964
123 5.827561 4.177154 5.843170 -5.771748 10.487586 9.837097
124 5.839185 4.168821 7.500025 5.852146 2.154874 0.025341
125 5.838293 4.169208 9.179530 4.960301 2.541258 12.864127
126 5.834213 5.837656 0.842644 0.879811 4.323130 9.310650
127 5.832009 5.844033 2.502709 -1.324046 10.700095 2.708915
128 5.854528 5.836689 4.163281 21.195234 3.356622 -3.384879
129 5.833621 5.837296 5.822660 0.287388 3.962723 -10.673052
130 5.844501 5.827500 7.500533 11.168653 -5.833156 0.533105
131 5.831012 5.824740 9.169921 -2.320978 -8.593197 3.255247
132 5.835708 7.498769 0.839787 2.374692 -1.230662 6.453472
133 5.845946 7.506269 2.491529 12.613282 6.269310 -8.471245
134 5.824876 7.493553 4.161359 -8.457097 -6.446678 -5.307849
135 5.836059 7.505043 5.826163 2.725824 5.042939 -7.169857
136 5.831537 7.498078 7.503648 -1.796120 -1.921851 3.647812
137 5.824335 7.492861 9.157049 -8.998121 -7.139422 -9.617144
138 5.838434 9.161477 0.839338 5.101238 -5.188505 6.004850
139 5.845967 9.151530 2.507696 12.634132 -15.135387 7.696163
140 5.817496 9.156034 4.160144 -15.836838 -10.632495 -6.522691
141 5.824057 9.169527 5.835224 -9.275975 2.861031 1.890938
142 5.828834 9.181105 7.487331 -4.499556 14.438294 -12.669157
143 5.826097 9.162940 9.169375 -7.235746 -3.725889 2.709534
144 7.504663 0.827455 0.826480 4.662752 -5.878455 -6.853450
145 7.503036 0.848671 2.504894 3.036705 15.337433 4.894455
146 7.497549 0.835127 4.168309 -2.451478 1.793468 1.642524
147 7.498145 0.833055 5.827135 -1.855211 -0.278112 -6.198601
148 7.508150 0.835979 7.509968 8.149755 2.645474 9.967782
149 7.503259 0.831534 9.167512 3.258561 -1.799276 0.846143
150 7.490989 2.501496 0.831546 -9.010966 1.495464 -1.787522
151 7.494750 2.490749 2.495097 -5.250092 -9.250625 -4.903258
152 7.509313 2.504974 4.166047 9.312531 4.973557 -0.619756
153 7.507032 2.494349 5.836513 7.031907 -5.651595 3.179707
154 7.512642 2.503110 7.498409 12.641781 3.109963 -1.590960
155 7.496976 2.505120 9.161790 -3.023768 5.119574 -4.875806
156 7.500691 4.163744 0.843055 0.690957 -2.922350 9.722046
157 7.496860 4.165465 2.494857 -3.140270 -1.201195 -5.143421
158 7.510919 4.172976 4.167688 10.919259 6.308731 1.021211
159 7.507046 4.161207 5.826744 7.046357 -5.460053 -6.589339
160 7.493716 4.180343 7.498684 -6.284171 13.676122 -1.315439
161 7.487157 4.161613 9.165808 -12.842607 -5.053413 -0.858389
162 7.501729 5.823113 0.844000 1.728493 -10.220045 10.667114
163 7.499619 5.828864 2.499758 -0.380644 -4.469334 -0.242295
164 7.501042 5.827432 4.167086 1.042458 -5.900900 0.419501
165 7.497757 5.843496 5.822745 -2.243208 10.162524 -10.587655
166 7.494087 5.833355 7.500882 -5.913144 0.021801 0.881472
167 7.504590 5.846838 9.168887 4.589534 13.504212 2.221386
168 7.496439 7.494623 0.821375 -3.560927 -5.377385 -11.958531
169 7.505379 7.504879 2.497302 5.378518 4.878627 -2.697973
170 7.496686 7.502785 4.164199 -3.314655 2.785061 -2.467441
171 7.488458 7.507482 5.828743 -11.542315 7.481988 -4.589350
172 7.492985 7.502286 7.497490 -7.015242 2.286023 -2.510096
173 7.492017 7.495861 9.180533 -7.982793 -4.139684 13.867492
174 7.501322 9.175813 0.837547 1.322450 9.146449 4.214017
175 7.490278 9.173403 2.504418 -9.721999 6.737209 4.418400
176 7.492244 9.165449 4.169683 -7.755882 -1.216718 3.015970
177 7.498414 9.173894 5.826832 -1.585646 7.228041 -6.500822
178 7.511790 9.156939 7.508443 11.789876 -9.727317 8.443104
179 7.504521 9.170429 9.168622 4.521408 3.763199 1.956437
180 9.162024 0.838529 0.835787 -4.642779 5.196052 2.454159
181 9.171248 0.828453 2.489316 4.582435 -4.880608 -10.684251
182 9.177810 0.830395 4.170708 11.143844 -2.938336 4.040909
183 9.166906 0.830832 5.838393 0.240358 -2.501092 5.059511
184 9.159879 0.834303 7.502248 -6.787583 0.969303 2.248332
185 9.162105 0.836584 9.166952 -4.560886 3.250426 0.286093
186 9.169713 2.513230 0.837046 3.046520 13.229673 3.712499
187 9.164146 2.509117 2.497959 -2.519461 9.116947 -2.041441
188 9.169037 2.495759 4.174063 2.370984 -4.241549 7.396302
189 9.169655 2.502358 5.825557 2.988683 2.358327 -7.775680
190 9.165789 2.502209 7.506237 -0.877567 2.208685 6.236911
191 9.153084 2.513702 9.170778 -13.582101 13.702205 4.111972
192 9.167569 4.162337 0.831908 0.903051 -4.329572 -1.424969
193 9.169868 4.155274 2.497496 3.202853 -11.392218 -2.503680
194 9.156862 4.170617 4.166217 -9.804000 3.950097 -0.449470
195 9.173910 4.166117 5.828566 7.244055 -0.549629 -4.767497
196 9.162030 4.176217 7.499996 -4.635707 9.550704 -0.004469
197 9.160306 4.160923 9.165902 -6.360053 -5.742946 -0.763545
198 9.157850 5.833422 0.828404 -8.815882 0.088535 -4.928764
199 9.165715 5.844764 2.500461 -0.950774 11.431047 0.461200
200 9.170325 5.823591 4.171408 3.659626 -9.742357 4.740979
201 9.168266 5.824481 5.840259 1.600554 -8.852543 6.926130
202 9.166507 5.835427 7.492164 -0.159165 2.094154 -7.836383
203 9.169564 5.828791 9.160213 2.898446 -4.541812 -6.453703
204 9.168615 7.498499 0.842699 1.949183 -1.501371 9.365980
205 9.170234 7.499679 2.494207 3.568100 -0.321543 -5.793257
206 9.172701 7.491646 4.161625 6.034901 -8.353785 -5.041315
207 9.173349 7.489776 5.824791 6.683863 -10.224359 -8.541835
208 9.154318 7.501481 7.507507 -12.348073 1.480600 7.506665
209 9.167070 7.503493 9.172343 0.404791 3.493366 5.677415
210 9.162834 9.163902 0.836086 -3.831950 -2.763393 2.753125
211 9.162394 9.165707 2.501831 -4.272388 -0.959658 1.830969
212 9.159325 9.162681 4.169830 -7.341782 -3.985136 3.163261
213 9.155204 9.166769 5.825877 -11.462460 0.103108 -7.455760
214 9.159928 9.176003 7.494269 -6.737557 9.336582 -5.730850
215 9.166780 9.153131 9.162054 0.114109 -13.535408 -4.611547
ITEM: TIMESTEP
1
ITEM: NUMBER OF ATOMS
216
ITEM: BOX BOUNDS pp pp pp
0 10.000000
0 10.000000
0 10.000000
ITEM: ATOMS id x y z vx vy vz 
0 0.852442 0.832910 0.847040 9.554531 -0.211405 6.853399
1 0.834868 0.828547 2.494509 0.767543 -2.393098 -2.745633
2 0.852385 0.826103 4.173374 9.526221 -3.615100 3.353651
3 0.844578 0.855926 5.829867 5.622390 11.296492 -1.733027
4 0.832413 0.817719 7.508419 -0.459950 -7.807295 4.209510
5 0.821237 0.852761 9.173841 -6.048081 9.713923 3.588122
6 0.847147 2.506705 0.832485 6.906810 3.352285 -0.424227
7 0.862599 2.506326 2.506385 14.632623 3.162749 3.192317
8 0.847168 2.497099 4.145606 6.917276 -1.450783 -10.530573
9 0.834455 2.491826 5.836921 0.561166 -4.087409 1.794104
10 0.838248 2.507652 7.492444 2.457535 3.825645 -3.777757
11 0.814067 2.497675 9.181614 -9.633005 -1.162732 7.473827
12 0.839794 4.155540 0.833533 3.230559 -5.563282 0.100039
13 0.828422 4.187927 2.485659 -2.455550 10.630180 -7.170719
14 0.836978 4.167329 4.159169 1.822700 0.331002 -3.748941
15 0.843222 4.150389 5.858218 4.944689 -8.138841 12.442642
16 0.822617 4.184896 7.501687 -5.358036 9.114846 0.843420
17 0.823844 4.171174 9.148376 -4.744442 2.253335 -9.145172
18 0.865850 5.839406 0.853020 16.258286 3.036327 9.843636
19 0.839912 5.842989 2.516053 3.289565 4.827868 8.026305
20 0.835552 5.822681 4.137296 1.109615 -5.325817 -14.685328
21 0.836166 5.821133 5.848280 1.416634 -6.100261 7.473449
22 0.838914 5.848954 7.486986 2.790472 7.810593 -6.507096
23 0.833324 5.809383 9.153746 -0.004398 -11.975275 -6.459664
24 0.813109 7.495595 0.832589 -10.112082 -2.202434 -0.371898
25 0.840767 7.504393 2.497210 3.716715 2.196348 -1.394929
26 0.831235 7.486213 4.168141 -1.048876 -6.893860 0.737068
27 0.855198 7.485402 5.841808 10.932634 -7.299081 4.237843
28 0.863235 7.486557 7.509086 14.950810 -6.721656 4.542786
29 0.840387 7.520481 9.160175 3.527071 10.240481 -3.245014
30 0.828501 9.174980 0.848344 -2.416186 4.156788 7.505269
31 0.824050 9.169050 2.508929 -4.641782 1.191884 4.464133
32 0.830494 9.178608 4.193101 -1.419731 5.970528 13.217266
33 0.837446 9.135998 5.832817 2.056544 -15.333916 -0.258338
34 0.821653 9.163225 7.489739 -5.840238 -1.720514 -5.130353
35 0.835751 9.196312 9.177372 1.209181 14.822728 5.352640
36 2.497080 0.831410 0.831863 -1.459944 -0.961453 -0.735309
37 2.495298 0.858575 2.497966 -2.351033 12.621064 -1.016970
38 2.494005 0.833934 4.158617 -2.997063 0.300208 -4.024903
39 2.499581 0.815164 5.804655 -0.209144 -9.084791 -14.339044
40 2.487603 0.837302 7.494316 -6.198522 1.984524 -2.842351
41 2.512732 0.837681 9.176512 6.366345 2.173723 4.922667
42 2.494212 2.508213 0.806188 -2.894048 4.106284 -13.572661
43 2.516405 2.505821 2.520246 8.202394 2.910492 10.122954
44 2.500512 2.507300 4.142088 0.256378 3.649808 -12.289042
45 2.500871 2.513678 5.837194 0.435540 6.838976 1.930663
46 2.496589 2.482965 7.488503 -1.705403 -8.517506 -5.748634
47 2.504843 2.509305 9.180628 2.421433 4.652437 6.980772
48 2.533728 4.169766 0.828874 16.863817 1.549551 -2.229719
49 2.517789 4.174905 2.510815 8.894809 4.119039 5.407581
50 2.476345 4.170444 4.150786 -11.827355 1.888806 -7.940469
51 2.518440 4.157275 5.829519 9.220226 -4.696139 -1.906950
52 2.502813 4.162807 7.495236 1.406449 -1.930053 -2.381605
53 2.499920 4.173944 9.152771 -0.039711 3.638337 -6.947047
54 2.473152 5.830704 0.845579 -13.423862 -1.314856 6.122947
55 2.501526 5.830698 2.490091 0.763001 -1.317617 -4.954529
56 2.516432 5.830854 4.174434 8.215931 -1.239325 3.883849
57 2.502506 5.824798 5.850840 1.253322 -4.267566 8.753358
58 2.509111 5.804952 7.514150 4.555631 -14.190980 7.074827
59 2.524780 5.802464 9.165855 12.390013 -15.435021 -0.404849
60 2.490633 7.486194 0.832383 -4.683738 -6.903388 -0.474908
61 2.496488 7.515719 2.503075 -1.756252 7.859524 1.537665
62 2.508317 7.490369 4.189087 4.158846 -4.815863 11.210591
63 2.504322 7.480377 5.843078 2.161089 -9.811627 4.872341
64 2.508846 7.495637 7.477554 4.423321 -2.181577 -11.222740
65 2.493117 7.491229 9.191141 -3.441401 -4.385690 12.237459
66 2.514000 9.163795 0.808396 6.999926 -1.435183 -12.468695
67 2.494757 9.154947 2.486244 -2.621377 -5.859818 -6.878022
68 2.523445 9.158031 4.137678 11.722563 -4.317064 -14.494526
69 2.507603 9.170147 5.823451 3.801648 1.740204 -4.941346
70 2.500584 9.182110 7.521263 0.292263 7.721839 10.631194
71 2.491331 9.160257 9.175797 -4.334280 -3.204727 4.564971
72 4.179947 0.841240 0.830299 6.640298 3.953378 -1.517159
73 4.163940 0.813430 2.499211 -1.363394 -9.951666 -0.394495
74 4.129522 0.831304 4.186945 -18.572067 -1.014902 10.139241
75 4.180502 0.837492 5.846006 6.918061 2.079328 6.336530
76 4.172103 0.828491 7.498463 2.718340 -2.421314 -0.768664
77 4.174986 0.827203 9.152433 4.160098 -3.065170 -7.116549
78 4.177549 2.507683 0.816497 5.441052 3.841519 -8.417806
79 4.177072 2.500527 2.499800 5.202890 0.263162 -0.100182
80 4.157758 2.502505 4.159090 -4.454268 1.252545 -3.788525
81 4.168313 2.514628 5.838001 0.823091 7.313885 2.334307
82 4.161986 2.489353 7.505576 -2.340029 -5.323614 2.788075
83 4.150166 2.503764 9.176062 -8.250220 1.881720 4.698166
84 4.154042 4.181295 0.851063 -6.312321 7.314186 8.864903
85 4.155416 4.173453 2.515182 -5.625356 3.392996 7.590809
86 4.156428 4.180782 4.172200 -5.119173 7.057461 2.766542
87 4.153669 4.173545 5.816011 -6.498441 3.439267 -8.660579
88 4.159341 4.182171 7.496106 -3.662700 7.752140 -1.947086
89 4.154747 4.168889 9.172421 -5.959285 1.110867 2.877268
90 4.175117 5.822001 0.833294 4.225400 -5.666370 -0.019409
91 4.152506 5.843598 2.499007 -7.079916 5.132249 -0.496558
92 4.155683 5.825868 4.167173 -5.491820 -3.732697 0.253297
93 4.159667 5.822158 5.850579 -3.499604 -5.587717 8.623145
94 4.164485 5.808988 7.471702 -1.090926 -12.172866 -14.149130
95 4.182240 5.837615 9.142839 7.786630 2.141103 -11.913157
96 4.154565 7.496655 0.846033 -6.050580 -1.672414 6.350072
97 4.147882 7.488497 2.524649 -9.392061 -5.751622 12.324466
98 4.148891 7.494235 4.166501 -8.887338 -2.882882 -0.083205
99 4.163253 7.509888 5.838321 -1.706431 4.943651 2.493917
100 4.161930 7.487196 7.488916 -2.368091 -6.401909 -5.541601
101 4.149308 7.503733 9.148560 -8.679404 1.866487 -9.052902
102 4.158657 9.176003 0.830442 -4.004920 4.667821 -1.445494
103 4.178857 9.179953 2.509449 6.095510 6.643138 4.724370
104 4.179092 9.188129 4.160011 6.212931 10.732108 -3.327736
105 4.166975 9.153811 5.826917 0.154092 -6.427943 -3.208148
106 4.161117 9.173950 7.497221 -2.774769 3.642363 -1.389754
107 4.147704 9.171335 9.159489 -9.481373 2.334617 -3.589136
108 5.846272 0.824740 0.838623 6.469500 -4.296892 2.644850
109 5.848725 0.833542 2.506069 7.696270 0.104239 3.034225
110 5.820332 0.839701 4.178298 -6.500348 3.183614 5.815489
111 5.854685 0.821773 5.824526 10.675965 -5.780312 -4.403710
112 5.834065 0.820685 7.496581 0.366443 -6.324368 -1.709642
113 5.811957 0.846532 9.160482 -10.687747 6.599186 -3.091824
114 5.837508 2.511334 0.841840 2.087435 5.666802 4.253284
115 5.818704 2.483431 2.509844 -7.314661 -8.284523 4.921938
116 5.818969 2.500089 4.154827 -7.181707 0.044242 -5.919831
117 5.855654 2.488119 5.817960 11.160439 -5.940640 -7.686745
118 5.829170 2.508698 7.491646 -2.081472 4.348742 -4.177167
119 5.830909 2.500722 9.180312 -1.211848 0.361052 6.823168
120 5.821161 4.160352 0.836342 -6.085864 -3.157362 1.504605
121 5.837154 4.152194 2.507030 1.910915 -7.236507 3.515038
122 5.822638 4.154246 4.175672 -5.347523 -6.210248 4.502966
123 5.821790 4.187642 5.853007 -5.771619 10.487449 9.837110
124 5.845037 4.170976 7.500051 5.852312 2.154727 0.025348
125 5.843254 4.171749 9.192394 4.960457 2.541111 12.864304
126 5.835093 5.841979 0.851955 0.879804 4.322987 9.310800
127 5.830685 5.854733 2.505418 -1.324025 10.699961 2.708918
128 5.875723 5.840046 4.159896 21.195412 3.356482 -3.384869
129 5.833908 5.841259 5.811987 0.287545 3.962568 -10.673047
130 5.855670 5.821667 7.501066 11.168806 -5.833312 0.533115
131 5.828691 5.816147 9.173176 -2.320849 -8.593353 3.255393
132 5.838082 7.497539 0.846240 2.374704 -1.230816 6.453626
133 5.858560 7.512539 2.483057 12.613327 6.269156 -8.471230
134 5.816419 7.487106 4.156051 -8.456954 -6.446834 -5.307833
135 5.838785 7.510086 5.818994 2.725980 5.042791 -7.169849
136 5.829741 7.496156 7.507296 -1.795981 -1.921995 3.647812
137 5.815337 7.485721 9.147432 -8.997970 -7.139568 -9.617024
138 5.843535 9.156288 0.845343 5.101254 -5.188509 6.004853
139 5.858602 9.136395 2.515392 12.634157 -15.135417 7.696023
140 5.801660 9.145401 4.153621 -15.836706 -10.632509 -6.522842
141 5.814781 9.172388 5.837115 -9.275853 2.861035 1.890803
142 5.824334 9.195543 7.474662 -4.499419 14.438327 -12.669313
143 5.818861 9.159214 9.172085 -7.235623 -3.725891 2.709541
144 7.509326 0.821576 0.819626 4.662757 -5.878455 -6.853466
145 7.506073 0.864008 2.509789 3.036683 15.337429 4.894351
146 7.495097 0.836920 4.169951 -2.451345 1.793471 1.642379
147 7.496289 0.832777 5.820936 -1.855073 -0.278112 -6.198751
148 7.516299 0.838624 7.519936 8.149907 2.645472 9.967661
149 7.506517 0.829735 9.168358 3.258729 -1.799275 0.846131
150 7.481978 2.502991 0.829758 -9.010983 1.495322 -1.787369
151 7.489500 2.481499 2.490193 -5.250085 -9.250794 -4.903255
152 7.518625 2.509947 4.165427 9.312685 4.973409 -0.619747
153 7.514064 2.488697 5.839692 7.032049 -5.651748 3.179716
154 7.525284 2.506220 7.496819 12.641945 3.109815 -1.590965
155 7.493953 2.510239 9.156914 -3.023613 5.119431 -4.875651
156 7.501382 4.160822 0.852777 0.690961 -2.922503 9.722198
157 7.493719 4.164264 2.489713 -3.140254 -1.201338 -5.143425
158 7.521839 4.179284 4.168709 10.919426 6.308583 1.021233
159 7.514092 4.155746 5.820154 7.046515 -5.460199 -6.589346
160 7.487432 4.194019 7.497369 -6.284047 13.675981 -1.315418
161 7.474315 4.156559 9.164949 -12.842484 -5.053567 -0.858264
162 7.503457 5.812893 0.854668 1.728503 -10.220199 10.667264
163 7.499239 5.824394 2.499516 -0.380632 -4.469485 -0.242304
164 7.502085 5.821531 4.167506 1.042579 -5.901058 0.419501
165 7.495514 5.853658 5.812158 -2.243064 10.162386 -10.587659
166 7.488173 5.833377 7.501763 -5.913029 0.021641 0.881488
167 7.509179 5.860342 9.171108 4.589676 13.504073 2.221542
168 7.492878 7.489245 0.809416 -3.560933 -5.377529 -11.958389
169 7.510757 7.509757 2.494604 5.378480 4.878487 -2.697963
170 7.493371 7.505570 4.161731 -3.314520 2.784918 -2.467429
171 7.476915 7.514964 5.824154 -11.542197 7.481837 -4.589347
172 7.485970 7.504572 7.494980 -7.015102 2.285876 -2.510077
173 7.484035 7.491721 9.194401 -7.982665 -4.139847 13.867668
174 7.502645 9.184959 0.841761 1.322447 9.146473 4.214012
175 7.480556 9.180140 2.508837 -9.722020 6.737202 4.418258
176 7.484488 9.164232 4.172698 -7.755733 -1.216725 3.015826
177 7.496829 9.181122 5.820332 -1.585482 7.228046 -6.500972
178 7.523580 9.147211 7.516886 11.790033 -9.727334 8.442975
179 7.509043 9.174192 9.170578 4.521569 3.763210 1.956431
180 9.157381 0.843725 0.838242 -4.642798 5.196049 2.454157
181 9.175831 0.823572 2.478631 4.582452 -4.880605 -10.684418
182 9.188953 0.827457 4.174748 11.143984 -2.938336 4.040781
183 9.167147 0.828331 5.843452 0.240496 -2.501089 5.059362
184 9.153091 0.835272 7.504497 -6.787461 0.969302 2.248182
185 9.157544 0.839834 9.167238 -4.560752 3.250426 0.286094
186 9.172760 2.526459 0.840758 3.046522 13.229531 3.712662
187 9.161627 2.518234 2.495917 -2.519467 9.116809 -2.041423
188 9.171408 2.491517 4.181459 2.371107 -4.241694 7.396310
189 9.172644 2.504717 5.817781 2.988835 2.358181 -7.775681
190 9.164911 2.504417 7.512474 -0.877455 2.208538 6.236923
191 9.139502 2.527405 9.174891 -13.581967 13.702062 4.112136
192 9.168472 4.158007 0.830483 0.903048 -4.329738 -1.424824
193 9.173071 4.143882 2.494993 3.202859 -11.392381 -2.503693
194 9.147058 4.174567 4.165767 -9.803885 3.949954 -0.449449
195 9.181154 4.165567 5.823798 7.244200 -0.549782 -4.767484
196 9.157394 4.185768 7.499991 -4.635565 9.550561 -0.004451
197 9.153946 4.155180 9.165138 -6.359907 -5.743110 -0.763399
198 9.149035 5.833510 0.823476 -8.815908 0.088391 -4.928611
199 9.164764 5.856195 2.500922 -0.950779 11.430914 0.461222
200 9.173985 5.813848 4.176149 3.659765 -9.742516 4.740986
201 9.169867 5.815628 5.847185 1.600699 -8.852698 6.926138
202 9.166348 5.837522 7.484327 -0.159011 2.093998 -7.836388
203 9.172462 5.824249 9.153759 2.898586 -4.541958 -6.453563
204 9.170565 7.496997 0.852065 1.949196 -1.501521 9.366127
205 9.173801 7.499357 2.488413 3.568115 -0.321700 -5.793263
206 9.178736 7.483293 4.156584 6.035055 -8.353930 -5.041311
207 9.180034 7.479551 5.816249 6.684016 -10.224507 -8.541837
208 9.141970 7.502961 7.515014 -12.347967 1.480450 7.506677
209 9.167476 7.506987 9.178020 0.404935 3.493223 5.677575
210 9.159002 9.161139 0.838840 -3.831956 -2.763399 2.753126
211 9.158121 9.164747 2.503662 -4.272375 -0.959656 1.830823
212 9.151983 9.158695 4.172993 -7.341644 -3.985133 3.163122
213 9.143742 9.166872 5.818421 -11.462326 0.103119 -7.455909
214 9.153191 9.185339 7.488538 -6.737437 9.336595 -5.730989
215 9.166895 9.139595 9.157442 0.114242 -13.535430 -4.611551
ITEM: TIMESTEP
2
ITEM: NUMBER OF ATOMS
216
ITEM: BOX BOUNDS pp pp pp
0 10.000000
0 10.000000
0 10.000000
ITEM: ATOMS id x y z vx vy vz 
0 0.861997 0.832699 0.853894 9.554562 -0.211405 6.853390
1 0.835636 0.826154 2.491763 0.767564 -2.393098 -2.745800
2 0.861912 0.822488 4.176728 9.526371 -3.615099 3.353506
3 0.850200 0.867223 5.828134 5.622553 11.296488 -1.733127
4 0.831953 0.809911 7.512629 -0.459804 -7.807291 4.209357
5 0.815189 0.862475 9.177429 -6.047956 9.713918 3.588125
6 0.854054 2.510057 0.832060 6.906831 3.352142 -0.424064
7 0.877231 2.509488 2.509577 14.632631 3.162608 3.192317
8 0.854085 2.495648 4.135075 6.917459 -1.450928 -10.530589
9 0.835017 2.487738 5.838715 0.561294 -4.087580 1.794136
10 0.840706 2.511477 7.488666 2.457694 3.825510 -3.777767
11 0.804434 2.496512 9.189088 -9.632886 -1.162894 7.474001
12 0.843025 4.149977 0.833633 3.230545 -5.563445 0.100179
13 0.825967 4.198557 2.478488 -2.455543 10.630039 -7.170717
14 0.838801 4.167660 4.155420 1.822880 0.330859 -3.748924
15 0.848167 4.142250 5.870661 4.944795 -8.138994 12.442672
16 0.817259 4.194011 7.502531 -5.357888 9.114702 0.843412
17 0.819100 4.173427 9.139231 -4.744292 2.253192 -9.145028
18 0.882108 5.842442 0.862864 16.258358 3.036190 9.843789
19 0.843202 5.847817 2.524079 3.289600 4.827712 8.026311
20 0.836662 5.817356 4.122611 1.109775 -5.325970 -14.685358
21 0.837583 5.815032 5.855753 1.416755 -6.100407 7.473491
22 0.841704 5.856765 7.480479 2.790637 7.810440 -6.507096
23 0.833320 5.797408 9.147286 -0.004271 -11.975440 -6.459568
24 0.802997 7.493393 0.832217 -10.112098 -2.202588 -0.371755
25 0.844483 7.506589 2.495815 3.716726 2.196194 -1.394922
26 0.830186 7.479319 4.168878 -1.048755 -6.894010 0.737055
27 0.866131 7.478103 5.846046 10.932796 -7.299232 4.237867
28 0.878186 7.479835 7.513628 14.950992 -6.721827 4.542787
29 0.843914 7.530722 9.156930 3.527230 10.240355 -3.244888
30 0.826085 9.179137 0.855849 -2.416188 4.156804 7.505269
31 0.819408 9.170242 2.513393 -4.641779 1.191890 4.463984
32 0.829074 9.184579 4.206318 -1.419611 5.970560 13.217127
33 0.839503 9.120664 5.832558 2.056715 -15.333957 -0.258491
34 0.815812 9.161505 7.484609 -5.840092 -1.720503 -5.130490
35 0.836961 9.211135 9.182725 1.209321 14.822741 5.352641
36 2.495620 0.830449 0.831127 -1.459971 -0.961453 -0.735310
37 2.492947 0.871196 2.496949 -2.351053 12.621060 -1.017079
38 2.491009 0.834234 4.154592 -2.996905 0.300210 -4.025047
39 2.499372 0.806079 5.790316 -0.209007 -9.084785 -14.339234
40 2.481404 0.839287 7.491473 -6.198406 1.984520 -2.842469
41 2.519099 0.839854 9.181435 6.366492 2.173722 4.922688
42 2.491318 2.512319 0.792615 -2.894069 4.106142 -13.572506
43 2.524607 2.508732 2.530369 8.202322 2.910329 10.122989
44 2.500769 2.510950 4.129799 0.256551 3.649662 -12.289070
45 2.501307 2.520517 5.839125 0.435663 6.838847 1.930702
46 2.494884 2.474448 7.482754 -1.705253 -8.517664 -5.748645
47 2.507264 2.513958 9.187609 2.421590 4.652289 6.980974
48 2.550591 4.171315 0.826644 16.863861 1.549398 -2.229566
49 2.526684 4.179024 2.516223 8.894843 4.118892 5.407608
50 2.464518 4.172333 4.142846 -11.827211 1.888655 -7.940481
51 2.527660 4.152578 5.827612 9.220388 -4.696303 -1.906929
52 2.504219 4.160877 7.492855 1.406610 -1.930192 -2.381577
53 2.499881 4.177582 9.145824 -0.039538 3.638187 -6.946879
54 2.459728 5.829389 0.851702 -13.423919 -1.315006 6.123101
55 2.502289 5.829381 2.485136 0.763032 -1.317773 -4.954546
56 2.524647 5.829615 4.178318 8.216088 -1.239479 3.883865
57 2.503760 5.820530 5.859593 1.253470 -4.267713 8.753378
58 2.513667 5.790761 7.521224 4.555789 -14.191142 7.074811
59 2.537170 5.787028 9.165451 12.390171 -15.435199 -0.404738
60 2.485949 7.479290 0.831908 -4.683730 -6.903545 -0.474760
61 2.494731 7.523579 2.504613 -1.756271 7.859385 1.537690
62 2.512476 7.485553 4.200298 4.159007 -4.816014 11.210606
63 2.506483 7.470565 5.847950 2.161227 -9.811782 4.872326
64 2.513270 7.493455 7.466331 4.423478 -2.181713 -11.222771
65 2.489676 7.486843 9.203379 -3.441284 -4.385820 12.237652
66 2.521000 9.162360 0.795927 6.999945 -1.435175 -12.468692